n -t * -s 0  -x 205 -y 203 -Z 0 -z 20  -v circle -c black
n -t * -s 1  -x 254 -y 352 -Z 0 -z 20  -v circle -c black
n -t * -s 2  -x 507 -y 230 -Z 0 -z 20  -v circle -c black
n -t * -s 3  -x 320 -y 156 -Z 0 -z 20  -v circle -c black
n -t * -s 4  -x 357 -y 305 -Z 0 -z 20  -v circle -c black
n -t * -s 5  -x 399 -y 456 -Z 0 -z 20  -v circle -c black
n -t * -s 6  -x 294 -y 473 -Z 0 -z 20  -v circle -c black
n -t * -s 7  -x 467 -y 513 -Z 0 -z 20  -v circle -c black
n -t * -s 8  -x 528 -y 360 -Z 0 -z 20  -v circle -c black
n -t * -s 9  -x 645 -y 301 -Z 0 -z 20  -v circle -c black
n -t * -s 10  -x 607 -y 168 -Z 0 -z 20  -v circle -c black
n -t * -s 11  -x 529 -y 77 -Z 0 -z 20  -v circle -c black
n -t * -s 12  -x 377 -y 80 -Z 0 -z 20  -v circle -c black
n -t * -s 13  -x 426 -y 183 -Z 0 -z 20  -v circle -c black
n -t * -s 14  -x 296 -y 254 -Z 0 -z 20  -v circle -c black
n -t * -s 15  -x 430 -y 343 -Z 0 -z 20  -v circle -c black
n -t * -s 16  -x 541 -y 464 -Z 0 -z 20  -v circle -c black
n -t * -s 17  -x 645 -y 448 -Z 0 -z 20  -v circle -c black
n -t * -s 18  -x 717 -y 358 -Z 0 -z 20  -v circle -c black
n -t * -s 19  -x 757 -y 255 -Z 0 -z 20  -v circle -c black
n -t * -s 20  -x 788 -y 174 -Z 0 -z 20  -v circle -c black
n -t * -s 21  -x 665 -y 76 -Z 0 -z 20  -v circle -c black
n -t * -s 22  -x 831 -y 119 -Z 0 -z 20  -v circle -c black
n -t * -s 23  -x 848 -y 272 -Z 0 -z 20  -v circle -c black
n -t * -s 24  -x 804 -y 452 -Z 0 -z 20  -v circle -c black
n -t * -s 25  -x 699 -y 521 -Z 0 -z 20  -v circle -c black
n -t * -s 26  -x 806 -y 355 -Z 0 -z 20  -v circle -c black
n -t * -s 27  -x 881 -y 372 -Z 0 -z 20  -v circle -c black
n -t * -s 28  -x 700 -y 196 -Z 0 -z 20  -v circle -c black
n -t * -s 29  -x 919 -y 183 -Z 0 -z 20  -v circle -c black
V -t * -v 1.0a5 -a 0
W -t * -x 1501 -y 600
A -t * -n 1 -p 0 -o 0xffffffff -c 31 -a 1
A -t * -h 1 -m 2147483647 -s 0
n -t 0 -s 0 -S COLOR -c deepskyblue -o blue -i deepskyblue -I blue
n -t 0 -s 1 -S COLOR -c deepskyblue -o blue -i deepskyblue -I blue
n -t 0 -s 2 -S COLOR -c deepskyblue -o blue -i deepskyblue -I blue
n -t 0 -s 3 -S COLOR -c deepskyblue -o blue -i deepskyblue -I blue
n -t 0 -s 4 -S COLOR -c deepskyblue -o blue -i deepskyblue -I blue
n -t 0 -s 5 -S COLOR -c deepskyblue -o blue -i deepskyblue -I blue
n -t 0 -s 6 -S COLOR -c deepskyblue -o blue -i deepskyblue -I blue
n -t 0 -s 7 -S COLOR -c deepskyblue -o blue -i deepskyblue -I blue
n -t 0 -s 8 -S COLOR -c deepskyblue -o blue -i deepskyblue -I blue
n -t 0 -s 9 -S COLOR -c deepskyblue -o blue -i deepskyblue -I blue
n -t 0 -s 10 -S COLOR -c deepskyblue -o blue -i deepskyblue -I blue
n -t 0 -s 11 -S COLOR -c deepskyblue -o blue -i deepskyblue -I blue
n -t 0 -s 12 -S COLOR -c deepskyblue -o blue -i deepskyblue -I blue
n -t 0 -s 13 -S COLOR -c deepskyblue -o blue -i deepskyblue -I blue
n -t 0 -s 14 -S COLOR -c deepskyblue -o blue -i deepskyblue -I blue
n -t 0 -s 15 -S COLOR -c deepskyblue -o blue -i deepskyblue -I blue
n -t 0 -s 16 -S COLOR -c deepskyblue -o blue -i deepskyblue -I blue
n -t 0 -s 17 -S COLOR -c deepskyblue -o blue -i deepskyblue -I blue
n -t 0 -s 18 -S COLOR -c deepskyblue -o blue -i deepskyblue -I blue
n -t 0 -s 19 -S COLOR -c deepskyblue -o blue -i deepskyblue -I blue
n -t 0 -s 20 -S COLOR -c deepskyblue -o blue -i deepskyblue -I blue
n -t 0 -s 21 -S COLOR -c deepskyblue -o blue -i deepskyblue -I blue
n -t 0 -s 22 -S COLOR -c deepskyblue -o blue -i deepskyblue -I blue
n -t 0 -s 23 -S COLOR -c deepskyblue -o blue -i deepskyblue -I blue
n -t 0 -s 24 -S COLOR -c deepskyblue -o blue -i deepskyblue -I blue
n -t 0 -s 25 -S COLOR -c deepskyblue -o blue -i deepskyblue -I blue
n -t 0 -s 26 -S COLOR -c deepskyblue -o blue -i deepskyblue -I blue
n -t 0 -s 27 -S COLOR -c deepskyblue -o blue -i deepskyblue -I blue
n -t 0 -s 28 -S COLOR -c deepskyblue -o blue -i deepskyblue -I blue
n -t 0 -s 29 -S COLOR -c deepskyblue -o blue -i deepskyblue -I blue
n -t 0.000000 -s 0 -x 205.000000 -y 203.000000 -U 3.577709 -V 1.788854 -T 27.950850
n -t 0.000000 -s 1 -x 254.000000 -y 352.000000 -U 4.673918 -V 1.776089 -T 21.395327
n -t 0.000000 -s 2 -x 507.000000 -y 230.000000 -U 4.201483 -V 2.710634 -T 22.135040
n -t 0.000000 -s 3 -x 320.000000 -y 156.000000 -U 4.733864 -V 1.609514 -T 21.124393
n -t 0.000000 -s 4 -x 357.000000 -y 305.000000 -U 2.952567 -V 2.698583 -T 31.498016
n -t 0.000000 -s 5 -x 399.000000 -y 456.000000 -U 4.738704 -V 1.595207 -T 21.313845
n -t 0.000000 -s 6 -x 294.000000 -y 473.000000 -U 1.574696 -V -1.233017 -T 67.314560
n -t 0.000000 -s 7 -x 467.000000 -y 513.000000 -U 3.716657 -V 1.478670 -T 25.022490
n -t 0.000000 -s 8 -x 528.000000 -y 360.000000 -U 4.892017 -V 1.033525 -T 29.026884
n -t 0.000000 -s 9 -x 645.000000 -y 301.000000 -U 3.554974 -V 1.833618 -T 26.723117
n -t 0.000000 -s 10 -x 607.000000 -y 168.000000 -U 4.865710 -V 1.151028 -T 19.113346
n -t 0.000000 -s 11 -x 529.000000 -y 77.000000 -U 3.967272 -V 0.510639 -T 25.458299
n -t 0.000000 -s 12 -x 377.000000 -y 80.000000 -U 4.971343 -V 0.534553 -T 18.707218
n -t 0.000000 -s 13 -x 426.000000 -y 183.000000 -U 3.479573 -V 3.590623 -T 27.014811
n -t 0.000000 -s 14 -x 296.000000 -y 254.000000 -U 3.779944 -V 1.308442 -T 27.513633
n -t 0.000000 -s 15 -x 430.000000 -y 343.000000 -U 4.525119 -V 2.126806 -T 22.098869
n -t 0.000000 -s 16 -x 541.000000 -y 464.000000 -U 4.836005 -V 1.270062 -T 20.471444
n -t 0.000000 -s 17 -x 645.000000 -y 448.000000 -U 4.573019 -V 2.021756 -T 20.774022
n -t 0.000000 -s 18 -x 717.000000 -y 358.000000 -U 3.726310 -V 1.454170 -T 22.005681
n -t 0.000000 -s 19 -x 757.000000 -y 255.000000 -U 1.397831 -V 4.800632 -T 70.824007
n -t 0.000000 -s 20 -x 788.000000 -y 174.000000 -U 4.935953 -V 0.797730 -T 20.056919
n -t 0.000000 -s 21 -x 665.000000 -y 76.000000 -U 3.957260 -V 0.583175 -T 24.006510
n -t 0.000000 -s 22 -x 831.000000 -y 119.000000 -U 4.063114 -V 2.913950 -T 24.365549
n -t 0.000000 -s 23 -x 848.000000 -y 272.000000 -U 3.922323 -V 0.784465 -T 26.769852
n -t 0.000000 -s 24 -x 804.000000 -y 452.000000 -U 4.642383 -V 1.856953 -T 20.463626
n -t 0.000000 -s 25 -x 699.000000 -y 521.000000 -U 3.598832 -V 1.745968 -T 28.064657
n -t 0.000000 -s 26 -x 806.000000 -y 355.000000 -U 4.635550 -V 1.873946 -T 20.278067
n -t 0.000000 -s 27 -x 881.000000 -y 372.000000 -U 3.629763 -V 3.438723 -T 5.234501
n -t 0.000000 -s 28 -x 700.000000 -y 196.000000 -U 3.017772 -V 2.625462 -T 33.137026
n -t 0.000000 -s 29 -x 919.000000 -y 183.000000 -U 3.996804 -V 0.159872 -T 43.784986
+ -t 0.003091411 -s 0 -d -1 -p message -e 32 -c 2 -a 0 -i 0 -k RTR 
- -t 0.003091411 -s 0 -d -1 -p message -e 32 -c 2 -a 0 -i 0 -k RTR
h -t 0.003091411 -s 0 -d -1 -p message -e 32 -c 2 -a 0 -i 0 -k RTR
+ -t 0.003466411 -s 0 -d -1 -p message -e 84 -c 2 -a 0 -i 0 -k MAC 
- -t 0.003466411 -s 0 -d -1 -p message -e 84 -c 2 -a 0 -i 0 -k MAC
h -t 0.003466411 -s 0 -d -1 -p message -e 84 -c 2 -a 0 -i 0 -k MAC
r -t 0.004138758 -s 14 -d -1 -p message -e 32 -c 2 -a 0 -i 0 -k MAC
r -t 0.004138825 -s 3 -d -1 -p message -e 32 -c 2 -a 0 -i 0 -k MAC
r -t 0.004138934 -s 1 -d -1 -p message -e 32 -c 2 -a 0 -i 0 -k MAC
r -t 0.004139021 -s 4 -d -1 -p message -e 32 -c 2 -a 0 -i 0 -k MAC
r -t 0.004139116 -s 12 -d -1 -p message -e 32 -c 2 -a 0 -i 0 -k MAC
r -t 0.004139150 -s 13 -d -1 -p message -e 32 -c 2 -a 0 -i 0 -k MAC
r -t 0.004163758 -s 14 -d -1 -p message -e 32 -c 2 -a 0 -i 0 -k RTR
r -t 0.004163825 -s 3 -d -1 -p message -e 32 -c 2 -a 0 -i 0 -k RTR
r -t 0.004163934 -s 1 -d -1 -p message -e 32 -c 2 -a 0 -i 0 -k RTR
r -t 0.004164021 -s 4 -d -1 -p message -e 32 -c 2 -a 0 -i 0 -k RTR
r -t 0.004164116 -s 12 -d -1 -p message -e 32 -c 2 -a 0 -i 0 -k RTR
r -t 0.004164150 -s 13 -d -1 -p message -e 32 -c 2 -a 0 -i 0 -k RTR
+ -t 0.037458776 -s 2 -d -1 -p message -e 32 -c 2 -a 0 -i 1 -k RTR 
- -t 0.037458776 -s 2 -d -1 -p message -e 32 -c 2 -a 0 -i 1 -k RTR
h -t 0.037458776 -s 2 -d -1 -p message -e 32 -c 2 -a 0 -i 1 -k RTR
+ -t 0.037813776 -s 2 -d -1 -p message -e 84 -c 2 -a 0 -i 1 -k MAC 
- -t 0.037813776 -s 2 -d -1 -p message -e 84 -c 2 -a 0 -i 1 -k MAC
h -t 0.037813776 -s 2 -d -1 -p message -e 84 -c 2 -a 0 -i 1 -k MAC
r -t 0.038486088 -s 13 -d -1 -p message -e 32 -c 2 -a 0 -i 1 -k MAC
r -t 0.038486168 -s 10 -d -1 -p message -e 32 -c 2 -a 0 -i 1 -k MAC
r -t 0.038486215 -s 8 -d -1 -p message -e 32 -c 2 -a 0 -i 1 -k MAC
r -t 0.038486232 -s 15 -d -1 -p message -e 32 -c 2 -a 0 -i 1 -k MAC
r -t 0.038486292 -s 11 -d -1 -p message -e 32 -c 2 -a 0 -i 1 -k MAC
r -t 0.038486293 -s 9 -d -1 -p message -e 32 -c 2 -a 0 -i 1 -k MAC
r -t 0.038486335 -s 4 -d -1 -p message -e 32 -c 2 -a 0 -i 1 -k MAC
r -t 0.038486429 -s 28 -d -1 -p message -e 32 -c 2 -a 0 -i 1 -k MAC
r -t 0.038486438 -s 12 -d -1 -p message -e 32 -c 2 -a 0 -i 1 -k MAC
r -t 0.038486446 -s 3 -d -1 -p message -e 32 -c 2 -a 0 -i 1 -k MAC
r -t 0.038486484 -s 14 -d -1 -p message -e 32 -c 2 -a 0 -i 1 -k MAC
r -t 0.038486512 -s 21 -d -1 -p message -e 32 -c 2 -a 0 -i 1 -k MAC
r -t 0.038486564 -s 16 -d -1 -p message -e 32 -c 2 -a 0 -i 1 -k MAC
r -t 0.038486596 -s 18 -d -1 -p message -e 32 -c 2 -a 0 -i 1 -k MAC
r -t 0.038511088 -s 13 -d -1 -p message -e 32 -c 2 -a 0 -i 1 -k RTR
r -t 0.038511168 -s 10 -d -1 -p message -e 32 -c 2 -a 0 -i 1 -k RTR
r -t 0.038511215 -s 8 -d -1 -p message -e 32 -c 2 -a 0 -i 1 -k RTR
r -t 0.038511232 -s 15 -d -1 -p message -e 32 -c 2 -a 0 -i 1 -k RTR
r -t 0.038511292 -s 11 -d -1 -p message -e 32 -c 2 -a 0 -i 1 -k RTR
r -t 0.038511293 -s 9 -d -1 -p message -e 32 -c 2 -a 0 -i 1 -k RTR
r -t 0.038511335 -s 4 -d -1 -p message -e 32 -c 2 -a 0 -i 1 -k RTR
r -t 0.038511429 -s 28 -d -1 -p message -e 32 -c 2 -a 0 -i 1 -k RTR
r -t 0.038511438 -s 12 -d -1 -p message -e 32 -c 2 -a 0 -i 1 -k RTR
r -t 0.038511446 -s 3 -d -1 -p message -e 32 -c 2 -a 0 -i 1 -k RTR
r -t 0.038511484 -s 14 -d -1 -p message -e 32 -c 2 -a 0 -i 1 -k RTR
r -t 0.038511512 -s 21 -d -1 -p message -e 32 -c 2 -a 0 -i 1 -k RTR
r -t 0.038511564 -s 16 -d -1 -p message -e 32 -c 2 -a 0 -i 1 -k RTR
r -t 0.038511596 -s 18 -d -1 -p message -e 32 -c 2 -a 0 -i 1 -k RTR
+ -t 0.087462768 -s 13 -d -1 -p message -e 32 -c 2 -a 0 -i 2 -k RTR 
- -t 0.087462768 -s 13 -d -1 -p message -e 32 -c 2 -a 0 -i 2 -k RTR
h -t 0.087462768 -s 13 -d -1 -p message -e 32 -c 2 -a 0 -i 2 -k RTR
+ -t 0.087757768 -s 13 -d -1 -p message -e 84 -c 2 -a 0 -i 2 -k MAC 
- -t 0.087757768 -s 13 -d -1 -p message -e 84 -c 2 -a 0 -i 2 -k MAC
h -t 0.087757768 -s 13 -d -1 -p message -e 84 -c 2 -a 0 -i 2 -k MAC
r -t 0.088430080 -s 2 -d -1 -p message -e 32 -c 2 -a 0 -i 2 -k MAC
r -t 0.088430132 -s 3 -d -1 -p message -e 32 -c 2 -a 0 -i 2 -k MAC
r -t 0.088430149 -s 12 -d -1 -p message -e 32 -c 2 -a 0 -i 2 -k MAC
r -t 0.088430235 -s 4 -d -1 -p message -e 32 -c 2 -a 0 -i 2 -k MAC
r -t 0.088430261 -s 14 -d -1 -p message -e 32 -c 2 -a 0 -i 2 -k MAC
r -t 0.088430261 -s 11 -d -1 -p message -e 32 -c 2 -a 0 -i 2 -k MAC
r -t 0.088430301 -s 15 -d -1 -p message -e 32 -c 2 -a 0 -i 2 -k MAC
r -t 0.088430374 -s 10 -d -1 -p message -e 32 -c 2 -a 0 -i 2 -k MAC
r -t 0.088430448 -s 8 -d -1 -p message -e 32 -c 2 -a 0 -i 2 -k MAC
r -t 0.088430507 -s 0 -d -1 -p message -e 32 -c 2 -a 0 -i 2 -k MAC
r -t 0.088430571 -s 1 -d -1 -p message -e 32 -c 2 -a 0 -i 2 -k MAC
r -t 0.088430597 -s 9 -d -1 -p message -e 32 -c 2 -a 0 -i 2 -k MAC
r -t 0.088455080 -s 2 -d -1 -p message -e 32 -c 2 -a 0 -i 2 -k RTR
r -t 0.088455132 -s 3 -d -1 -p message -e 32 -c 2 -a 0 -i 2 -k RTR
r -t 0.088455149 -s 12 -d -1 -p message -e 32 -c 2 -a 0 -i 2 -k RTR
r -t 0.088455235 -s 4 -d -1 -p message -e 32 -c 2 -a 0 -i 2 -k RTR
r -t 0.088455261 -s 14 -d -1 -p message -e 32 -c 2 -a 0 -i 2 -k RTR
r -t 0.088455261 -s 11 -d -1 -p message -e 32 -c 2 -a 0 -i 2 -k RTR
r -t 0.088455301 -s 15 -d -1 -p message -e 32 -c 2 -a 0 -i 2 -k RTR
r -t 0.088455374 -s 10 -d -1 -p message -e 32 -c 2 -a 0 -i 2 -k RTR
r -t 0.088455448 -s 8 -d -1 -p message -e 32 -c 2 -a 0 -i 2 -k RTR
r -t 0.088455507 -s 0 -d -1 -p message -e 32 -c 2 -a 0 -i 2 -k RTR
r -t 0.088455571 -s 1 -d -1 -p message -e 32 -c 2 -a 0 -i 2 -k RTR
r -t 0.088455597 -s 9 -d -1 -p message -e 32 -c 2 -a 0 -i 2 -k RTR
+ -t 0.177365656 -s 3 -d -1 -p message -e 32 -c 2 -a 0 -i 3 -k RTR 
- -t 0.177365656 -s 3 -d -1 -p message -e 32 -c 2 -a 0 -i 3 -k RTR
h -t 0.177365656 -s 3 -d -1 -p message -e 32 -c 2 -a 0 -i 3 -k RTR
+ -t 0.177560656 -s 3 -d -1 -p message -e 84 -c 2 -a 0 -i 3 -k MAC 
- -t 0.177560656 -s 3 -d -1 -p message -e 84 -c 2 -a 0 -i 3 -k MAC
h -t 0.177560656 -s 3 -d -1 -p message -e 84 -c 2 -a 0 -i 3 -k MAC
r -t 0.178232973 -s 12 -d -1 -p message -e 32 -c 2 -a 0 -i 3 -k MAC
r -t 0.178232992 -s 14 -d -1 -p message -e 32 -c 2 -a 0 -i 3 -k MAC
r -t 0.178233020 -s 13 -d -1 -p message -e 32 -c 2 -a 0 -i 3 -k MAC
r -t 0.178233071 -s 0 -d -1 -p message -e 32 -c 2 -a 0 -i 3 -k MAC
r -t 0.178233168 -s 4 -d -1 -p message -e 32 -c 2 -a 0 -i 3 -k MAC
r -t 0.178233326 -s 2 -d -1 -p message -e 32 -c 2 -a 0 -i 3 -k MAC
r -t 0.178233345 -s 1 -d -1 -p message -e 32 -c 2 -a 0 -i 3 -k MAC
r -t 0.178233379 -s 15 -d -1 -p message -e 32 -c 2 -a 0 -i 3 -k MAC
r -t 0.178233400 -s 11 -d -1 -p message -e 32 -c 2 -a 0 -i 3 -k MAC
r -t 0.178257973 -s 12 -d -1 -p message -e 32 -c 2 -a 0 -i 3 -k RTR
r -t 0.178257992 -s 14 -d -1 -p message -e 32 -c 2 -a 0 -i 3 -k RTR
r -t 0.178258020 -s 13 -d -1 -p message -e 32 -c 2 -a 0 -i 3 -k RTR
r -t 0.178258071 -s 0 -d -1 -p message -e 32 -c 2 -a 0 -i 3 -k RTR
r -t 0.178258168 -s 4 -d -1 -p message -e 32 -c 2 -a 0 -i 3 -k RTR
r -t 0.178258326 -s 2 -d -1 -p message -e 32 -c 2 -a 0 -i 3 -k RTR
r -t 0.178258345 -s 1 -d -1 -p message -e 32 -c 2 -a 0 -i 3 -k RTR
r -t 0.178258379 -s 15 -d -1 -p message -e 32 -c 2 -a 0 -i 3 -k RTR
r -t 0.178258400 -s 11 -d -1 -p message -e 32 -c 2 -a 0 -i 3 -k RTR
+ -t 0.191634337 -s 19 -d -1 -p message -e 32 -c 2 -a 0 -i 4 -k RTR 
- -t 0.191634337 -s 19 -d -1 -p message -e 32 -c 2 -a 0 -i 4 -k RTR
h -t 0.191634337 -s 19 -d -1 -p message -e 32 -c 2 -a 0 -i 4 -k RTR
+ -t 0.191889337 -s 19 -d -1 -p message -e 84 -c 2 -a 0 -i 4 -k MAC 
- -t 0.191889337 -s 19 -d -1 -p message -e 84 -c 2 -a 0 -i 4 -k MAC
h -t 0.191889337 -s 19 -d -1 -p message -e 84 -c 2 -a 0 -i 4 -k MAC
r -t 0.192561610 -s 28 -d -1 -p message -e 32 -c 2 -a 0 -i 4 -k MAC
r -t 0.192561629 -s 20 -d -1 -p message -e 32 -c 2 -a 0 -i 4 -k MAC
r -t 0.192561646 -s 23 -d -1 -p message -e 32 -c 2 -a 0 -i 4 -k MAC
r -t 0.192561702 -s 18 -d -1 -p message -e 32 -c 2 -a 0 -i 4 -k MAC
r -t 0.192561707 -s 26 -d -1 -p message -e 32 -c 2 -a 0 -i 4 -k MAC
r -t 0.192561738 -s 9 -d -1 -p message -e 32 -c 2 -a 0 -i 4 -k MAC
r -t 0.192561855 -s 22 -d -1 -p message -e 32 -c 2 -a 0 -i 4 -k MAC
r -t 0.192561905 -s 27 -d -1 -p message -e 32 -c 2 -a 0 -i 4 -k MAC
r -t 0.192561914 -s 10 -d -1 -p message -e 32 -c 2 -a 0 -i 4 -k MAC
r -t 0.192561930 -s 29 -d -1 -p message -e 32 -c 2 -a 0 -i 4 -k MAC
r -t 0.192562009 -s 21 -d -1 -p message -e 32 -c 2 -a 0 -i 4 -k MAC
r -t 0.192562010 -s 24 -d -1 -p message -e 32 -c 2 -a 0 -i 4 -k MAC
r -t 0.192562078 -s 17 -d -1 -p message -e 32 -c 2 -a 0 -i 4 -k MAC
r -t 0.192586610 -s 28 -d -1 -p message -e 32 -c 2 -a 0 -i 4 -k RTR
r -t 0.192586629 -s 20 -d -1 -p message -e 32 -c 2 -a 0 -i 4 -k RTR
r -t 0.192586646 -s 23 -d -1 -p message -e 32 -c 2 -a 0 -i 4 -k RTR
r -t 0.192586702 -s 18 -d -1 -p message -e 32 -c 2 -a 0 -i 4 -k RTR
r -t 0.192586707 -s 26 -d -1 -p message -e 32 -c 2 -a 0 -i 4 -k RTR
r -t 0.192586738 -s 9 -d -1 -p message -e 32 -c 2 -a 0 -i 4 -k RTR
r -t 0.192586855 -s 22 -d -1 -p message -e 32 -c 2 -a 0 -i 4 -k RTR
r -t 0.192586905 -s 27 -d -1 -p message -e 32 -c 2 -a 0 -i 4 -k RTR
r -t 0.192586914 -s 10 -d -1 -p message -e 32 -c 2 -a 0 -i 4 -k RTR
r -t 0.192586930 -s 29 -d -1 -p message -e 32 -c 2 -a 0 -i 4 -k RTR
r -t 0.192587009 -s 21 -d -1 -p message -e 32 -c 2 -a 0 -i 4 -k RTR
r -t 0.192587010 -s 24 -d -1 -p message -e 32 -c 2 -a 0 -i 4 -k RTR
r -t 0.192587078 -s 17 -d -1 -p message -e 32 -c 2 -a 0 -i 4 -k RTR
+ -t 0.234603229 -s 15 -d -1 -p message -e 32 -c 2 -a 0 -i 5 -k RTR 
- -t 0.234603229 -s 15 -d -1 -p message -e 32 -c 2 -a 0 -i 5 -k RTR
h -t 0.234603229 -s 15 -d -1 -p message -e 32 -c 2 -a 0 -i 5 -k RTR
+ -t 0.234898229 -s 15 -d -1 -p message -e 84 -c 2 -a 0 -i 5 -k MAC 
- -t 0.234898229 -s 15 -d -1 -p message -e 84 -c 2 -a 0 -i 5 -k MAC
h -t 0.234898229 -s 15 -d -1 -p message -e 84 -c 2 -a 0 -i 5 -k MAC
r -t 0.235570505 -s 4 -d -1 -p message -e 32 -c 2 -a 0 -i 5 -k MAC
r -t 0.235570561 -s 8 -d -1 -p message -e 32 -c 2 -a 0 -i 5 -k MAC
r -t 0.235570620 -s 5 -d -1 -p message -e 32 -c 2 -a 0 -i 5 -k MAC
r -t 0.235570685 -s 2 -d -1 -p message -e 32 -c 2 -a 0 -i 5 -k MAC
r -t 0.235570762 -s 13 -d -1 -p message -e 32 -c 2 -a 0 -i 5 -k MAC
r -t 0.235570766 -s 14 -d -1 -p message -e 32 -c 2 -a 0 -i 5 -k MAC
r -t 0.235570776 -s 16 -d -1 -p message -e 32 -c 2 -a 0 -i 5 -k MAC
r -t 0.235570809 -s 7 -d -1 -p message -e 32 -c 2 -a 0 -i 5 -k MAC
r -t 0.235570817 -s 1 -d -1 -p message -e 32 -c 2 -a 0 -i 5 -k MAC
r -t 0.235570856 -s 6 -d -1 -p message -e 32 -c 2 -a 0 -i 5 -k MAC
r -t 0.235570953 -s 3 -d -1 -p message -e 32 -c 2 -a 0 -i 5 -k MAC
r -t 0.235570959 -s 9 -d -1 -p message -e 32 -c 2 -a 0 -i 5 -k MAC
r -t 0.235571027 -s 17 -d -1 -p message -e 32 -c 2 -a 0 -i 5 -k MAC
r -t 0.235571060 -s 10 -d -1 -p message -e 32 -c 2 -a 0 -i 5 -k MAC
r -t 0.235595505 -s 4 -d -1 -p message -e 32 -c 2 -a 0 -i 5 -k RTR
r -t 0.235595561 -s 8 -d -1 -p message -e 32 -c 2 -a 0 -i 5 -k RTR
r -t 0.235595620 -s 5 -d -1 -p message -e 32 -c 2 -a 0 -i 5 -k RTR
r -t 0.235595685 -s 2 -d -1 -p message -e 32 -c 2 -a 0 -i 5 -k RTR
r -t 0.235595762 -s 13 -d -1 -p message -e 32 -c 2 -a 0 -i 5 -k RTR
r -t 0.235595766 -s 14 -d -1 -p message -e 32 -c 2 -a 0 -i 5 -k RTR
r -t 0.235595776 -s 16 -d -1 -p message -e 32 -c 2 -a 0 -i 5 -k RTR
r -t 0.235595809 -s 7 -d -1 -p message -e 32 -c 2 -a 0 -i 5 -k RTR
r -t 0.235595817 -s 1 -d -1 -p message -e 32 -c 2 -a 0 -i 5 -k RTR
r -t 0.235595856 -s 6 -d -1 -p message -e 32 -c 2 -a 0 -i 5 -k RTR
r -t 0.235595953 -s 3 -d -1 -p message -e 32 -c 2 -a 0 -i 5 -k RTR
r -t 0.235595959 -s 9 -d -1 -p message -e 32 -c 2 -a 0 -i 5 -k RTR
r -t 0.235596027 -s 17 -d -1 -p message -e 32 -c 2 -a 0 -i 5 -k RTR
r -t 0.235596060 -s 10 -d -1 -p message -e 32 -c 2 -a 0 -i 5 -k RTR
+ -t 0.333839210 -s 12 -d -1 -p message -e 32 -c 2 -a 0 -i 6 -k RTR 
- -t 0.333839210 -s 12 -d -1 -p message -e 32 -c 2 -a 0 -i 6 -k RTR
h -t 0.333839210 -s 12 -d -1 -p message -e 32 -c 2 -a 0 -i 6 -k RTR
+ -t 0.333994210 -s 12 -d -1 -p message -e 84 -c 2 -a 0 -i 6 -k MAC 
- -t 0.333994210 -s 12 -d -1 -p message -e 84 -c 2 -a 0 -i 6 -k MAC
h -t 0.333994210 -s 12 -d -1 -p message -e 84 -c 2 -a 0 -i 6 -k MAC
r -t 0.334666528 -s 3 -d -1 -p message -e 32 -c 2 -a 0 -i 6 -k MAC
r -t 0.334666593 -s 13 -d -1 -p message -e 32 -c 2 -a 0 -i 6 -k MAC
r -t 0.334666716 -s 11 -d -1 -p message -e 32 -c 2 -a 0 -i 6 -k MAC
r -t 0.334666851 -s 14 -d -1 -p message -e 32 -c 2 -a 0 -i 6 -k MAC
r -t 0.334666873 -s 2 -d -1 -p message -e 32 -c 2 -a 0 -i 6 -k MAC
r -t 0.334666917 -s 0 -d -1 -p message -e 32 -c 2 -a 0 -i 6 -k MAC
r -t 0.334666965 -s 4 -d -1 -p message -e 32 -c 2 -a 0 -i 6 -k MAC
r -t 0.334667031 -s 10 -d -1 -p message -e 32 -c 2 -a 0 -i 6 -k MAC
r -t 0.334691528 -s 3 -d -1 -p message -e 32 -c 2 -a 0 -i 6 -k RTR
r -t 0.334691593 -s 13 -d -1 -p message -e 32 -c 2 -a 0 -i 6 -k RTR
r -t 0.334691716 -s 11 -d -1 -p message -e 32 -c 2 -a 0 -i 6 -k RTR
r -t 0.334691851 -s 14 -d -1 -p message -e 32 -c 2 -a 0 -i 6 -k RTR
r -t 0.334691873 -s 2 -d -1 -p message -e 32 -c 2 -a 0 -i 6 -k RTR
r -t 0.334691917 -s 0 -d -1 -p message -e 32 -c 2 -a 0 -i 6 -k RTR
r -t 0.334691965 -s 4 -d -1 -p message -e 32 -c 2 -a 0 -i 6 -k RTR
r -t 0.334692031 -s 10 -d -1 -p message -e 32 -c 2 -a 0 -i 6 -k RTR
+ -t 0.351472650 -s 18 -d -1 -p message -e 32 -c 2 -a 0 -i 7 -k RTR 
- -t 0.351472650 -s 18 -d -1 -p message -e 32 -c 2 -a 0 -i 7 -k RTR
h -t 0.351472650 -s 18 -d -1 -p message -e 32 -c 2 -a 0 -i 7 -k RTR
+ -t 0.351847650 -s 18 -d -1 -p message -e 84 -c 2 -a 0 -i 7 -k MAC 
- -t 0.351847650 -s 18 -d -1 -p message -e 84 -c 2 -a 0 -i 7 -k MAC
h -t 0.351847650 -s 18 -d -1 -p message -e 84 -c 2 -a 0 -i 7 -k MAC
r -t 0.352519948 -s 26 -d -1 -p message -e 32 -c 2 -a 0 -i 7 -k MAC
r -t 0.352519956 -s 9 -d -1 -p message -e 32 -c 2 -a 0 -i 7 -k MAC
r -t 0.352520014 -s 19 -d -1 -p message -e 32 -c 2 -a 0 -i 7 -k MAC
r -t 0.352520034 -s 17 -d -1 -p message -e 32 -c 2 -a 0 -i 7 -k MAC
r -t 0.352520078 -s 24 -d -1 -p message -e 32 -c 2 -a 0 -i 7 -k MAC
r -t 0.352520173 -s 23 -d -1 -p message -e 32 -c 2 -a 0 -i 7 -k MAC
r -t 0.352520192 -s 28 -d -1 -p message -e 32 -c 2 -a 0 -i 7 -k MAC
r -t 0.352520197 -s 25 -d -1 -p message -e 32 -c 2 -a 0 -i 7 -k MAC
r -t 0.352520199 -s 27 -d -1 -p message -e 32 -c 2 -a 0 -i 7 -k MAC
r -t 0.352520279 -s 8 -d -1 -p message -e 32 -c 2 -a 0 -i 7 -k MAC
r -t 0.352520309 -s 20 -d -1 -p message -e 32 -c 2 -a 0 -i 7 -k MAC
r -t 0.352520334 -s 16 -d -1 -p message -e 32 -c 2 -a 0 -i 7 -k MAC
r -t 0.352520382 -s 10 -d -1 -p message -e 32 -c 2 -a 0 -i 7 -k MAC
r -t 0.352520469 -s 2 -d -1 -p message -e 32 -c 2 -a 0 -i 7 -k MAC
r -t 0.352544948 -s 26 -d -1 -p message -e 32 -c 2 -a 0 -i 7 -k RTR
r -t 0.352544956 -s 9 -d -1 -p message -e 32 -c 2 -a 0 -i 7 -k RTR
r -t 0.352545014 -s 19 -d -1 -p message -e 32 -c 2 -a 0 -i 7 -k RTR
r -t 0.352545034 -s 17 -d -1 -p message -e 32 -c 2 -a 0 -i 7 -k RTR
r -t 0.352545078 -s 24 -d -1 -p message -e 32 -c 2 -a 0 -i 7 -k RTR
r -t 0.352545173 -s 23 -d -1 -p message -e 32 -c 2 -a 0 -i 7 -k RTR
r -t 0.352545192 -s 28 -d -1 -p message -e 32 -c 2 -a 0 -i 7 -k RTR
r -t 0.352545197 -s 25 -d -1 -p message -e 32 -c 2 -a 0 -i 7 -k RTR
r -t 0.352545199 -s 27 -d -1 -p message -e 32 -c 2 -a 0 -i 7 -k RTR
r -t 0.352545279 -s 8 -d -1 -p message -e 32 -c 2 -a 0 -i 7 -k RTR
r -t 0.352545309 -s 20 -d -1 -p message -e 32 -c 2 -a 0 -i 7 -k RTR
r -t 0.352545334 -s 16 -d -1 -p message -e 32 -c 2 -a 0 -i 7 -k RTR
r -t 0.352545382 -s 10 -d -1 -p message -e 32 -c 2 -a 0 -i 7 -k RTR
r -t 0.352545469 -s 2 -d -1 -p message -e 32 -c 2 -a 0 -i 7 -k RTR
+ -t 0.436386259 -s 29 -d -1 -p message -e 32 -c 2 -a 0 -i 8 -k RTR 
- -t 0.436386259 -s 29 -d -1 -p message -e 32 -c 2 -a 0 -i 8 -k RTR
h -t 0.436386259 -s 29 -d -1 -p message -e 32 -c 2 -a 0 -i 8 -k RTR
+ -t 0.436701259 -s 29 -d -1 -p message -e 84 -c 2 -a 0 -i 8 -k MAC 
- -t 0.436701259 -s 29 -d -1 -p message -e 84 -c 2 -a 0 -i 8 -k MAC
h -t 0.436701259 -s 29 -d -1 -p message -e 84 -c 2 -a 0 -i 8 -k MAC
r -t 0.437373619 -s 22 -d -1 -p message -e 32 -c 2 -a 0 -i 8 -k MAC
r -t 0.437373639 -s 23 -d -1 -p message -e 32 -c 2 -a 0 -i 8 -k MAC
r -t 0.437373695 -s 20 -d -1 -p message -e 32 -c 2 -a 0 -i 8 -k MAC
r -t 0.437373856 -s 19 -d -1 -p message -e 32 -c 2 -a 0 -i 8 -k MAC
r -t 0.437373906 -s 27 -d -1 -p message -e 32 -c 2 -a 0 -i 8 -k MAC
r -t 0.437373947 -s 26 -d -1 -p message -e 32 -c 2 -a 0 -i 8 -k MAC
r -t 0.437373992 -s 28 -d -1 -p message -e 32 -c 2 -a 0 -i 8 -k MAC
r -t 0.437398619 -s 22 -d -1 -p message -e 32 -c 2 -a 0 -i 8 -k RTR
r -t 0.437398639 -s 23 -d -1 -p message -e 32 -c 2 -a 0 -i 8 -k RTR
r -t 0.437398695 -s 20 -d -1 -p message -e 32 -c 2 -a 0 -i 8 -k RTR
r -t 0.437398856 -s 19 -d -1 -p message -e 32 -c 2 -a 0 -i 8 -k RTR
r -t 0.437398906 -s 27 -d -1 -p message -e 32 -c 2 -a 0 -i 8 -k RTR
r -t 0.437398947 -s 26 -d -1 -p message -e 32 -c 2 -a 0 -i 8 -k RTR
r -t 0.437398992 -s 28 -d -1 -p message -e 32 -c 2 -a 0 -i 8 -k RTR
+ -t 0.470117073 -s 8 -d -1 -p message -e 32 -c 2 -a 0 -i 9 -k RTR 
- -t 0.470117073 -s 8 -d -1 -p message -e 32 -c 2 -a 0 -i 9 -k RTR
h -t 0.470117073 -s 8 -d -1 -p message -e 32 -c 2 -a 0 -i 9 -k RTR
+ -t 0.470652073 -s 8 -d -1 -p message -e 84 -c 2 -a 0 -i 9 -k MAC 
- -t 0.470652073 -s 8 -d -1 -p message -e 84 -c 2 -a 0 -i 9 -k MAC
h -t 0.470652073 -s 8 -d -1 -p message -e 84 -c 2 -a 0 -i 9 -k MAC
r -t 0.471324405 -s 15 -d -1 -p message -e 32 -c 2 -a 0 -i 9 -k MAC
r -t 0.471324423 -s 16 -d -1 -p message -e 32 -c 2 -a 0 -i 9 -k MAC
r -t 0.471324507 -s 9 -d -1 -p message -e 32 -c 2 -a 0 -i 9 -k MAC
r -t 0.471324509 -s 2 -d -1 -p message -e 32 -c 2 -a 0 -i 9 -k MAC
r -t 0.471324561 -s 17 -d -1 -p message -e 32 -c 2 -a 0 -i 9 -k MAC
r -t 0.471324610 -s 5 -d -1 -p message -e 32 -c 2 -a 0 -i 9 -k MAC
r -t 0.471324623 -s 7 -d -1 -p message -e 32 -c 2 -a 0 -i 9 -k MAC
r -t 0.471324674 -s 4 -d -1 -p message -e 32 -c 2 -a 0 -i 9 -k MAC
r -t 0.471324701 -s 18 -d -1 -p message -e 32 -c 2 -a 0 -i 9 -k MAC
r -t 0.471324751 -s 13 -d -1 -p message -e 32 -c 2 -a 0 -i 9 -k MAC
r -t 0.471324765 -s 10 -d -1 -p message -e 32 -c 2 -a 0 -i 9 -k MAC
r -t 0.471324855 -s 25 -d -1 -p message -e 32 -c 2 -a 0 -i 9 -k MAC
r -t 0.471324861 -s 28 -d -1 -p message -e 32 -c 2 -a 0 -i 9 -k MAC
r -t 0.471324905 -s 19 -d -1 -p message -e 32 -c 2 -a 0 -i 9 -k MAC
r -t 0.471349405 -s 15 -d -1 -p message -e 32 -c 2 -a 0 -i 9 -k RTR
r -t 0.471349423 -s 16 -d -1 -p message -e 32 -c 2 -a 0 -i 9 -k RTR
r -t 0.471349507 -s 9 -d -1 -p message -e 32 -c 2 -a 0 -i 9 -k RTR
r -t 0.471349509 -s 2 -d -1 -p message -e 32 -c 2 -a 0 -i 9 -k RTR
r -t 0.471349561 -s 17 -d -1 -p message -e 32 -c 2 -a 0 -i 9 -k RTR
r -t 0.471349610 -s 5 -d -1 -p message -e 32 -c 2 -a 0 -i 9 -k RTR
r -t 0.471349623 -s 7 -d -1 -p message -e 32 -c 2 -a 0 -i 9 -k RTR
r -t 0.471349674 -s 4 -d -1 -p message -e 32 -c 2 -a 0 -i 9 -k RTR
r -t 0.471349701 -s 18 -d -1 -p message -e 32 -c 2 -a 0 -i 9 -k RTR
r -t 0.471349751 -s 13 -d -1 -p message -e 32 -c 2 -a 0 -i 9 -k RTR
r -t 0.471349765 -s 10 -d -1 -p message -e 32 -c 2 -a 0 -i 9 -k RTR
r -t 0.471349855 -s 25 -d -1 -p message -e 32 -c 2 -a 0 -i 9 -k RTR
r -t 0.471349861 -s 28 -d -1 -p message -e 32 -c 2 -a 0 -i 9 -k RTR
r -t 0.471349905 -s 19 -d -1 -p message -e 32 -c 2 -a 0 -i 9 -k RTR
+ -t 0.521504883 -s 22 -d -1 -p message -e 32 -c 2 -a 0 -i 10 -k RTR 
- -t 0.521504883 -s 22 -d -1 -p message -e 32 -c 2 -a 0 -i 10 -k RTR
h -t 0.521504883 -s 22 -d -1 -p message -e 32 -c 2 -a 0 -i 10 -k RTR
+ -t 0.521659883 -s 22 -d -1 -p message -e 84 -c 2 -a 0 -i 10 -k MAC 
- -t 0.521659883 -s 22 -d -1 -p message -e 84 -c 2 -a 0 -i 10 -k MAC
h -t 0.521659883 -s 22 -d -1 -p message -e 84 -c 2 -a 0 -i 10 -k MAC
r -t 0.522332112 -s 20 -d -1 -p message -e 32 -c 2 -a 0 -i 10 -k MAC
r -t 0.522332243 -s 29 -d -1 -p message -e 32 -c 2 -a 0 -i 10 -k MAC
r -t 0.522332391 -s 28 -d -1 -p message -e 32 -c 2 -a 0 -i 10 -k MAC
r -t 0.522332393 -s 23 -d -1 -p message -e 32 -c 2 -a 0 -i 10 -k MAC
r -t 0.522332404 -s 19 -d -1 -p message -e 32 -c 2 -a 0 -i 10 -k MAC
r -t 0.522332456 -s 21 -d -1 -p message -e 32 -c 2 -a 0 -i 10 -k MAC
r -t 0.522332645 -s 10 -d -1 -p message -e 32 -c 2 -a 0 -i 10 -k MAC
r -t 0.522332672 -s 26 -d -1 -p message -e 32 -c 2 -a 0 -i 10 -k MAC
r -t 0.522357112 -s 20 -d -1 -p message -e 32 -c 2 -a 0 -i 10 -k RTR
r -t 0.522357243 -s 29 -d -1 -p message -e 32 -c 2 -a 0 -i 10 -k RTR
r -t 0.522357391 -s 28 -d -1 -p message -e 32 -c 2 -a 0 -i 10 -k RTR
r -t 0.522357393 -s 23 -d -1 -p message -e 32 -c 2 -a 0 -i 10 -k RTR
r -t 0.522357404 -s 19 -d -1 -p message -e 32 -c 2 -a 0 -i 10 -k RTR
r -t 0.522357456 -s 21 -d -1 -p message -e 32 -c 2 -a 0 -i 10 -k RTR
r -t 0.522357645 -s 10 -d -1 -p message -e 32 -c 2 -a 0 -i 10 -k RTR
r -t 0.522357672 -s 26 -d -1 -p message -e 32 -c 2 -a 0 -i 10 -k RTR
+ -t 0.626302117 -s 10 -d -1 -p message -e 32 -c 2 -a 0 -i 11 -k RTR 
- -t 0.626302117 -s 10 -d -1 -p message -e 32 -c 2 -a 0 -i 11 -k RTR
h -t 0.626302117 -s 10 -d -1 -p message -e 32 -c 2 -a 0 -i 11 -k RTR
+ -t 0.626497117 -s 10 -d -1 -p message -e 84 -c 2 -a 0 -i 11 -k MAC 
- -t 0.626497117 -s 10 -d -1 -p message -e 84 -c 2 -a 0 -i 11 -k MAC
h -t 0.626497117 -s 10 -d -1 -p message -e 84 -c 2 -a 0 -i 11 -k MAC
r -t 0.627169438 -s 28 -d -1 -p message -e 32 -c 2 -a 0 -i 11 -k MAC
r -t 0.627169480 -s 21 -d -1 -p message -e 32 -c 2 -a 0 -i 11 -k MAC
r -t 0.627169512 -s 2 -d -1 -p message -e 32 -c 2 -a 0 -i 11 -k MAC
r -t 0.627169519 -s 11 -d -1 -p message -e 32 -c 2 -a 0 -i 11 -k MAC
r -t 0.627169579 -s 9 -d -1 -p message -e 32 -c 2 -a 0 -i 11 -k MAC
r -t 0.627169693 -s 19 -d -1 -p message -e 32 -c 2 -a 0 -i 11 -k MAC
r -t 0.627169721 -s 20 -d -1 -p message -e 32 -c 2 -a 0 -i 11 -k MAC
r -t 0.627169726 -s 13 -d -1 -p message -e 32 -c 2 -a 0 -i 11 -k MAC
r -t 0.627169809 -s 8 -d -1 -p message -e 32 -c 2 -a 0 -i 11 -k MAC
r -t 0.627169848 -s 18 -d -1 -p message -e 32 -c 2 -a 0 -i 11 -k MAC
r -t 0.627169879 -s 22 -d -1 -p message -e 32 -c 2 -a 0 -i 11 -k MAC
r -t 0.627169938 -s 12 -d -1 -p message -e 32 -c 2 -a 0 -i 11 -k MAC
r -t 0.627169949 -s 15 -d -1 -p message -e 32 -c 2 -a 0 -i 11 -k MAC
r -t 0.627194438 -s 28 -d -1 -p message -e 32 -c 2 -a 0 -i 11 -k RTR
r -t 0.627194480 -s 21 -d -1 -p message -e 32 -c 2 -a 0 -i 11 -k RTR
r -t 0.627194512 -s 2 -d -1 -p message -e 32 -c 2 -a 0 -i 11 -k RTR
r -t 0.627194519 -s 11 -d -1 -p message -e 32 -c 2 -a 0 -i 11 -k RTR
r -t 0.627194579 -s 9 -d -1 -p message -e 32 -c 2 -a 0 -i 11 -k RTR
r -t 0.627194693 -s 19 -d -1 -p message -e 32 -c 2 -a 0 -i 11 -k RTR
r -t 0.627194721 -s 20 -d -1 -p message -e 32 -c 2 -a 0 -i 11 -k RTR
r -t 0.627194726 -s 13 -d -1 -p message -e 32 -c 2 -a 0 -i 11 -k RTR
r -t 0.627194809 -s 8 -d -1 -p message -e 32 -c 2 -a 0 -i 11 -k RTR
r -t 0.627194848 -s 18 -d -1 -p message -e 32 -c 2 -a 0 -i 11 -k RTR
r -t 0.627194879 -s 22 -d -1 -p message -e 32 -c 2 -a 0 -i 11 -k RTR
r -t 0.627194938 -s 12 -d -1 -p message -e 32 -c 2 -a 0 -i 11 -k RTR
r -t 0.627194949 -s 15 -d -1 -p message -e 32 -c 2 -a 0 -i 11 -k RTR
+ -t 0.633203961 -s 6 -d -1 -p message -e 32 -c 2 -a 0 -i 12 -k RTR 
- -t 0.633203961 -s 6 -d -1 -p message -e 32 -c 2 -a 0 -i 12 -k RTR
h -t 0.633203961 -s 6 -d -1 -p message -e 32 -c 2 -a 0 -i 12 -k RTR
+ -t 0.633858961 -s 6 -d -1 -p message -e 84 -c 2 -a 0 -i 12 -k MAC 
- -t 0.633858961 -s 6 -d -1 -p message -e 84 -c 2 -a 0 -i 12 -k MAC
h -t 0.633858961 -s 6 -d -1 -p message -e 84 -c 2 -a 0 -i 12 -k MAC
r -t 0.634531321 -s 5 -d -1 -p message -e 32 -c 2 -a 0 -i 12 -k MAC
r -t 0.634531378 -s 1 -d -1 -p message -e 32 -c 2 -a 0 -i 12 -k MAC
r -t 0.634531552 -s 4 -d -1 -p message -e 32 -c 2 -a 0 -i 12 -k MAC
r -t 0.634531559 -s 7 -d -1 -p message -e 32 -c 2 -a 0 -i 12 -k MAC